18
Lattice="20.0 0.0 0.0 0.0 20.0 0.0 0.0 0.0 20.0" Properties=species:S:1:pos:R:3:Z:I:1:magmoms:R:1:tags:I:1:forces:R:3 energy=-10489.55812844196 pbc="F F F"
C     -1.17013400    -1.47577800     0.17499400   6    0.00000000        0    -1.56815580     2.79507120    -0.76668739
C     -2.36115200    -0.82167100    -0.11882700   6    0.00000000        0    -0.16270140     2.32303452     0.56484606
C     -2.44013100     0.67150000    -0.17860000   6    0.00000000        0     2.02229301    -2.82790031     0.59191431
C     -1.26232400     1.36909200     0.06036600   6    0.00000000        0    -1.18339664     0.77013330    -1.29789341
C     -0.01854000     0.72312800     0.05670200   6    0.00000000        0    -1.07419973    -0.36925658     1.74500082
C      1.14443200     1.48662600     0.08318700   6    0.00000000        0     3.69916573    -1.61783440    -0.76090157
C      2.37277300     0.72866500    -0.14058400   6    0.00000000        0    -1.37392125     4.20616144    -0.00855527
C      2.41308900    -0.64482500    -0.18170100   6    0.00000000        0     2.12875998     0.03440705     0.19354954
C      1.29853900    -1.33188900     0.11907300   6    0.00000000        0    -2.36950323    -1.85723763     0.33523355
C     -0.00372600    -0.72396500     0.19946100   6    0.00000000        0     2.74863254     1.10943875    -0.68521569
H     -1.05564800    -2.48924200     0.09474900   1    0.00000000        0    -0.05931681    -2.86477924     0.18395681
H     -3.32851200    -1.29527400    -0.20771000   1    0.00000000        0    -0.09072933    -0.62688032    -0.20352326
H     -3.36504000     1.08420200    -0.49368200   1    0.00000000        0    -0.88321513     0.71728377     0.06110147
H     -1.16999300     2.46280100    -0.02921400   1    0.00000000        0    -0.55872126    -0.14510689     0.14202298
H      1.30703300     2.58903200     0.17226800   1    0.00000000        0    -0.87737726    -0.81169711    -0.18413980
H      3.21337900     1.42991800    -0.34670400   1    0.00000000        0     0.02677664    -0.99735488     0.24831499
H      3.40092000    -1.12765600    -0.30782800   1    0.00000000        0    -0.53626790    -0.01413490    -0.03675907
H      1.32176500    -2.42597400     0.23607700   1    0.00000000        0     0.10824995     0.16694228    -0.11921265
18
Lattice="20.0 0.0 0.0 0.0 20.0 0.0 0.0 0.0 20.0" Properties=species:S:1:pos:R:3:Z:I:1:magmoms:R:1:tags:I:1:forces:R:3 energy=-10489.584146394345 pbc="F F F"
C     -1.16764100    -1.47727900     0.17731600   6    0.00000000        0    -1.78231976     2.51751906    -0.86392463
C     -2.36721400    -0.82869800    -0.11707200   6    0.00000000        0     0.40156268     2.70067386     0.59704917
C     -2.43628700     0.67410400    -0.17553400   6    0.00000000        0     0.90868037    -2.56338775     0.26275560
C     -1.26346700     1.37297000     0.05762600   6    0.00000000        0    -1.07665964     0.37545540    -1.19428633
C     -0.02317400     0.72064400     0.05662400   6    0.00000000        0    -0.69740436    -0.11278683     1.72093149
C      1.14552000     1.48653400     0.08094200   6    0.00000000        0     3.50339127    -1.83866818    -0.75010984
C      2.37678000     0.72664000    -0.13885300   6    0.00000000        0    -1.58806522     4.38458640     0.02553419
C      2.41407900    -0.64191300    -0.17967000   6    0.00000000        0     1.93301552    -0.14094601     0.22476766
C      1.29770700    -1.33026500     0.11579300   6    0.00000000        0    -2.26663610    -2.27740579     0.38766008
C     -0.00077500    -0.72160800     0.19906400   6    0.00000000        0     2.50475938     0.92023208    -0.66626022
H     -1.06019600    -2.49718900     0.08009000   1    0.00000000        0    -0.03578947    -2.52864871     0.20745115
H     -3.33009700    -1.28809000    -0.22307700   1    0.00000000        0    -0.33555856    -0.79884749    -0.19326556
H     -3.38211100     1.10793700    -0.49732600   1    0.00000000        0     0.00458350     0.25318984     0.35279207
H     -1.16675900     2.45529700    -0.02884600   1    0.00000000        0    -0.55168943     0.20378527     0.10267612
H      1.30288500     2.58669100     0.17047100   1    0.00000000        0    -0.83976831    -0.73444231    -0.18443580
H      3.21294200     1.42669700    -0.34209400   1    0.00000000        0     0.13877707    -0.92048905     0.22435068
H      3.39340000    -1.12584000    -0.30004700   1    0.00000000        0    -0.31293816    -0.11064087    -0.07851208
H      1.32164400    -2.44064300     0.23300000   1    0.00000000        0     0.09145644     0.65854946    -0.16950921
18
Lattice="20.0 0.0 0.0 0.0 20.0 0.0 0.0 0.0 20.0" Properties=species:S:1:pos:R:3:Z:I:1:magmoms:R:1:tags:I:1:forces:R:3 energy=-10489.588482719744 pbc="F F F"
C     -1.16546900    -1.47829400     0.17950000   6    0.00000000        0    -1.94241525     1.95794480    -0.99087308
C     -2.37329300    -0.83529000    -0.11516900   6    0.00000000        0     0.90423950     3.01397507     0.62678032
C     -2.43219700     0.67623100    -0.17236600   6    0.00000000        0    -0.10451307    -2.30963488    -0.02908087
C     -1.26484700     1.37698600     0.05460000   6    0.00000000        0    -0.95719600    -0.04278531    -1.08179949
C     -0.02802300     0.71809800     0.05689300   6    0.00000000        0    -0.30104150     0.15540861     1.68485252
C      1.14733400     1.48606800     0.07850800   6    0.00000000        0     3.25087837    -2.08374125    -0.73644022
C      2.38053100     0.72547000    -0.13708800   6    0.00000000        0    -1.80079923     4.46639409     0.06163076
C      2.41547600    -0.63898200    -0.17756100   6    0.00000000        0     1.64587360    -0.29805958     0.26968939
C      1.29640300    -1.32907600     0.11253800   6    0.00000000        0    -2.09228104    -2.58064724     0.41582429
C      0.00273100    -0.71902600     0.19852600   6    0.00000000        0     2.20855774     0.70814405    -0.64179389
H     -1.06490400    -2.51136200     0.06569500   1    0.00000000        0    -0.03552881    -1.90065643     0.26710047
H     -3.33251700    -1.28271600    -0.23915900   1    0.00000000        0    -0.52586718    -0.92916981    -0.18361081
H     -3.39944500     1.13266800    -0.50018000   1    0.00000000        0     0.76729838    -0.17453406     0.59959711
H     -1.16480400     2.44816500    -0.02822500   1    0.00000000        0    -0.53535692     0.57025094     0.06163284
H      1.29664400     2.58254300     0.16819900   1    0.00000000        0    -0.78505789    -0.60361797    -0.18038793
H      3.21283300     1.42120400    -0.33686900   1    0.00000000        0     0.28192806    -0.79935649     0.19257656
H      3.38500300    -1.12426000    -0.29233000   1    0.00000000        0    -0.05075916    -0.22234773    -0.12202957
H      1.32174100    -2.45395800     0.22946500   1    0.00000000        0     0.07078709     1.06066012    -0.20830311
18
Lattice="20.0 0.0 0.0 0.0 20.0 0.0 0.0 0.0 20.0" Properties=species:S:1:pos:R:3:Z:I:1:magmoms:R:1:tags:I:1:forces:R:3 energy=-10489.566801092755 pbc="F F F"
C     -1.16365100    -1.47893000     0.18152300   6    0.00000000        0    -2.06254187     1.24687485    -1.14182780
C     -2.37929700    -0.84139000    -0.11310400   6    0.00000000        0     1.30884311     3.24954842     0.64639578
C     -2.42805500     0.67792800    -0.16914700   6    0.00000000        0    -0.97162460    -2.09023108    -0.26806145
C     -1.26644500     1.38106700     0.05130000   6    0.00000000        0    -0.82596171    -0.45218425    -0.96447882
C     -0.03302000     0.71553800     0.05750900   6    0.00000000        0     0.10677200     0.42963289     1.63637388
C      1.14983900     1.48517200     0.07588100   6    0.00000000        0     2.95086683    -2.34072404    -0.71923672
C      2.38398400     0.72518500    -0.13527900   6    0.00000000        0    -2.00521348     4.45103456     0.09787863
C      2.41723200    -0.63606000    -0.17535900   6    0.00000000        0     1.28701370    -0.43655670     0.32437284
C      1.29465100    -1.32838800     0.10931000   6    0.00000000        0    -1.85023785    -2.76027219     0.42046815
C      0.00674700    -0.71625500     0.19784900   6    0.00000000        0     1.86244751     0.47754555    -0.61200373
H     -1.06978200    -2.53037800     0.05168600   1    0.00000000        0    -0.04351607    -1.10962872     0.35767391
H     -3.33625000    -1.27948700    -0.25597400   1    0.00000000        0    -0.62864529    -1.00446169    -0.16742327
H     -3.41523800     1.15742300    -0.50163800   1    0.00000000        0     1.36678149    -0.54340267     0.78823880
H     -1.16410500     2.44228400    -0.02744600   1    0.00000000        0    -0.51251555     0.91973106     0.02216018
H      1.28839600     2.57686400     0.16545100   1    0.00000000        0    -0.71589281    -0.42637097    -0.17247314
H      3.21340300     1.41368500    -0.33108500   1    0.00000000        0     0.44949634    -0.63976896     0.15490065
H      3.37633400    -1.12318800    -0.28477000   1    0.00000000        0     0.23279645    -0.34131039    -0.16467937
H      1.32201100    -2.46494900     0.22536200   1    0.00000000        0     0.04680300     1.36321157    -0.23487238
18
Lattice="20.0 0.0 0.0 0.0 20.0 0.0 0.0 0.0 20.0" Properties=species:S:1:pos:R:3:Z:I:1:magmoms:R:1:tags:I:1:forces:R:3 energy=-10489.527774164175 pbc="F F F"
C     -1.16221700    -1.47932600     0.18335200   6    0.00000000        0    -2.15391930     0.51443051    -1.30354325
C     -2.38515100    -0.84694800    -0.11086800   6    0.00000000        0     1.59059516     3.39975417     0.64714375
C     -2.42403000     0.67923300    -0.16592100   6    0.00000000        0    -1.68243259    -1.91298608    -0.45068332
C     -1.26824100     1.38513300     0.04774100   6    0.00000000        0    -0.68199176    -0.81280608    -0.84651112
C     -0.03809100     0.71301600     0.05846700   6    0.00000000        0     0.51801140     0.70370418     1.57540558
C      1.15299000     1.48378400     0.07305800   6    0.00000000        0     2.61266636    -2.59251693    -0.69741434
C      2.38709700     0.72579700    -0.13341700   6    0.00000000        0    -2.18966827     4.34316760     0.13146728
C      2.41928200    -0.63317000    -0.17305000   6    0.00000000        0     0.88477507    -0.55997823     0.38391219
C      1.29249100    -1.32824700     0.10610500   6    0.00000000        0    -1.54734639    -2.81853055     0.40382863
C      0.01121700    -0.71333400     0.19703400   6    0.00000000        0     1.46982859     0.23328542    -0.57707073
H     -1.07485800    -2.55243600     0.03827300   1    0.00000000        0    -0.04823733    -0.28663592     0.46545289
H     -3.34157300    -1.27862300    -0.27351500   1    0.00000000        0    -0.62191145    -1.01703135    -0.13658016
H     -3.42802800     1.18133800    -0.50122000   1    0.00000000        0     1.80245917    -0.84765912     0.91892212
H     -1.16463100     2.43851300    -0.02659800   1    0.00000000        0    -0.48732627     1.21025589    -0.01231174
H      1.27826200     2.57004800     0.16223300   1    0.00000000        0    -0.63581007    -0.21451095    -0.16158146
H      3.21507100     1.40447800    -0.32481700   1    0.00000000        0     0.63056424    -0.45178427     0.11418876
H      3.36806300    -1.12291800    -0.27746400   1    0.00000000        0     0.51351451    -0.45589315    -0.20338628
H      1.32240000    -2.47285500     0.22061300   1    0.00000000        0     0.02033381     1.56355592    -0.24940397
18
Lattice="20.0 0.0 0.0 0.0 20.0 0.0 0.0 0.0 20.0" Properties=species:S:1:pos:R:3:Z:I:1:magmoms:R:1:tags:I:1:forces:R:3 energy=-10489.4757382594 pbc="F F F"
C     -1.16119100    -1.47962500     0.18495400   6    0.00000000        0    -2.22149738    -0.14503890    -1.46093881
C     -2.39079800    -0.85192700    -0.10845700   6    0.00000000        0     1.74295087     3.46514232     0.62165747
C     -2.42026700     0.68017700    -0.16272200   6    0.00000000        0    -2.24789662    -1.77560995    -0.58208560
C     -1.27021100     1.38911600     0.04394000   6    0.00000000        0    -0.52359325    -1.08382945    -0.73154837
C     -0.04315800     0.71058700     0.05976500   6    0.00000000        0     0.92489393     0.97096063     1.50217766
C      1.15673400     1.48184300     0.07003800   6    0.00000000        0     2.24512671    -2.81655063    -0.66941815
C      2.38982700     0.72730200    -0.13149000   6    0.00000000        0    -2.33708412     4.15328295     0.15861051
C      2.42155300    -0.63033600    -0.17061700   6    0.00000000        0     0.47422761    -0.67603495     0.44294051
C      1.28997400    -1.32867500     0.10291700   6    0.00000000        0    -1.19301639    -2.76113217     0.36877161
C      0.01607500    -0.71030700     0.19608600   6    0.00000000        0     1.03527080    -0.01911968    -0.53724587
H     -1.08014900    -2.57562700     0.02571600   1    0.00000000        0    -0.04415286     0.47095972     0.57518577
H     -3.34850400    -1.28020100    -0.29173500   1    0.00000000        0    -0.50130688    -0.96690373    -0.08412163
H     -3.43671700     1.20368000    -0.49857100   1    0.00000000        0     2.09141104    -1.09068926     0.99818984
H     -1.16634600     2.43759300    -0.02576200   1    0.00000000        0    -0.46443190     1.39939057    -0.03896821
H      1.26638900     2.56257700     0.15856100   1    0.00000000        0    -0.54890352     0.01468848    -0.14908278
H      3.21829600     1.39399600    -0.31814800   1    0.00000000        0     0.80913321    -0.25005394     0.07431959
H      3.36086800    -1.12374400    -0.27050600   1    0.00000000        0     0.76205750    -0.55125844    -0.23492836
H      1.32284700    -2.47713900     0.21516500   1    0.00000000        0    -0.00751216     1.66161316    -0.25245289
18
Lattice="20.0 0.0 0.0 0.0 20.0 0.0 0.0 0.0 20.0" Properties=species:S:1:pos:R:3:Z:I:1:magmoms:R:1:tags:I:1:forces:R:3 energy=-10489.43237500542 pbc="F F F"
C     -1.16059500    -1.47996000     0.18629200   6    0.00000000        0    -2.26569615    -0.67887884    -1.60169485
C     -2.39620900    -0.85630600    -0.10587000   6    0.00000000        0     1.77894987     3.45458263     0.56625606
C     -2.41688100     0.68078000    -0.15957400   6    0.00000000        0    -2.68570431    -1.67172287    -0.67027709
C     -1.27232900     1.39296100     0.03991200   6    0.00000000        0    -0.35003413    -1.23360522    -0.62189445
C     -0.04814200     0.70830400     0.06139400   6    0.00000000        0     1.32035280     1.22478548     1.41716005
C      1.16101200     1.47929000     0.06681900   6    0.00000000        0     1.85534769    -2.98529587    -0.63322414
C      2.39214000     0.72968100    -0.12949100   6    0.00000000        0    -2.42488166     3.89702016     0.17473509
C      2.42396700    -0.62758000    -0.16804400   6    0.00000000        0     0.09278149    -0.79536156     0.49628303
C      1.28716300    -1.32967100     0.09973900   6    0.00000000        0    -0.79852851    -2.59298690     0.31824201
C      0.02124300    -0.70722100     0.19500900   6    0.00000000        0     0.56483110    -0.27375929    -0.49290009
H     -1.08565700    -2.59816100     0.01428900   1    0.00000000        0    -0.03065392     1.10948875     0.67501097
H     -3.35679000    -1.28415000    -0.31053800   1    0.00000000        0    -0.28170908    -0.86183769    -0.00640649
H     -3.44052900     1.22384900    -0.49345300   1    0.00000000        0     2.25438645    -1.27890395     1.03393084
H     -1.16921900     2.44003700    -0.02500200   1    0.00000000        0    -0.44755540     1.45427900    -0.05640319
H      1.25294100     2.55498800     0.15445300   1    0.00000000        0    -0.45919006     0.23856528    -0.13680413
H      3.22354500     1.38269300    -0.31116200   1    0.00000000        0     0.96417484    -0.05302389     0.03994246
H      3.35536800    -1.12591900    -0.26397200   1    0.00000000        0     0.94796527    -0.61116977    -0.25641976
H      1.32328800    -2.47749400     0.20899200   1    0.00000000        0    -0.03535822     1.65655332    -0.24461012
18
Lattice="20.0 0.0 0.0 0.0 20.0 0.0 0.0 0.0 20.0" Properties=species:S:1:pos:R:3:Z:I:1:magmoms:R:1:tags:I:1:forces:R:3 energy=-10489.406357053034 pbc="F F F"
C     -1.16044500    -1.48044000     0.18733400   6    0.00000000        0    -2.28600555    -1.06777989    -1.71890157
C     -2.40137600    -0.86007800    -0.10311200   6    0.00000000        0     1.72679134     3.38299462     0.48191440
C     -2.41396800     0.68105700    -0.15649500   6    0.00000000        0    -3.00967517    -1.59474507    -0.72165765
C     -1.27456300     1.39663900     0.03567000   6    0.00000000        0    -0.16300238    -1.24954477    -0.51799042
C     -0.05296600     0.70622000     0.06334600   6    0.00000000        0     1.69793214     1.45886887     1.32106275
C      1.16575900     1.47607500     0.06340100   6    0.00000000        0     1.44781918    -3.06819353    -0.58649746
C      2.39401100     0.73290300    -0.12741300   6    0.00000000        0    -2.42671159     3.59275873     0.17515207
C      2.42645200    -0.62492600    -0.16531400   6    0.00000000        0    -0.22620762    -0.92855782     0.53962677
C      1.28412900    -1.33121600     0.09655600   6    0.00000000        0    -0.37655141    -2.31596470     0.25502381
C      0.02663800    -0.70412400     0.19380900   6    0.00000000        0     0.06592463    -0.52470522    -0.44454148
H     -1.09135600    -2.61849900     0.00424700   1    0.00000000        0    -0.00974216     1.60997463     0.75778162
H     -3.36593700    -1.29027000    -0.32976200   1    0.00000000        0     0.00697715    -0.71528386     0.09571671
H     -3.43897100     1.24135900    -0.48572200   1    0.00000000        0     2.30814492    -1.41782004     1.03273089
H     -1.17323700     2.44605200    -0.02436200   1    0.00000000        0    -0.43816166     1.36100165    -0.06505728
H      1.23809200     2.54781200     0.14992400   1    0.00000000        0    -0.36972659     0.43089185    -0.12684142
H      3.23124000     1.37101800    -0.30392800   1    0.00000000        0     1.07135978     0.11943363     0.01582364
H      3.35204300    -1.12961800    -0.25791800   1    0.00000000        0     1.04573054    -0.62114848    -0.26587251
H      1.32365200    -2.47384900     0.20209300   1    0.00000000        0    -0.06156585     1.54511643    -0.22636863
18
Lattice="20.0 0.0 0.0 0.0 20.0 0.0 0.0 0.0 20.0" Properties=species:S:1:pos:R:3:Z:I:1:magmoms:R:1:tags:I:1:forces:R:3 energy=-10489.410693378431 pbc="F F F"
C     -1.16075700    -1.48114700     0.18805000   6    0.00000000        0    -2.28204566    -1.31398296    -1.80967898
C     -2.40630700    -0.86324700    -0.10019400   6    0.00000000        0     1.62140432     3.26783791     0.37375348
C     -2.41160100     0.68101500    -0.15349400   6    0.00000000        0    -3.22439912    -1.54129656    -0.73964616
C     -1.27688000     1.40014500     0.03122900   6    0.00000000        0     0.03262868    -1.14287780    -0.41856121
C     -0.05755200     0.70438700     0.06560900   6    0.00000000        0     2.05175218     1.66731300     1.21477577
C      1.17090400     1.47216700     0.05979000   6    0.00000000        0     1.02368115    -3.03581445    -0.52702914
C      2.39543000     0.73692600    -0.12525400   6    0.00000000        0    -2.31623473     3.25773817     0.15613260
C      2.42894600    -0.62240200    -0.16241400   6    0.00000000        0    -0.46015203    -1.08230948     0.57008191
C      1.28095100    -1.33326500     0.09335500   6    0.00000000        0     0.05942453    -1.92872564     0.18170886
C      0.03216600    -0.70106500     0.19249200   6    0.00000000        0    -0.45266623    -0.76608339    -0.39283192
H     -1.09720500    -2.63539000    -0.00418400   1    0.00000000        0     0.01584155     1.97401435     0.82024786
H     -3.37526900    -1.29825600    -0.34918000   1    0.00000000        0     0.32776974    -0.54320368     0.21720086
H     -3.43179400     1.25582500    -0.47532200   1    0.00000000        0     2.26173626    -1.50958744     0.99867386
H     -1.17840600     2.45549300    -0.02386500   1    0.00000000        0    -0.43487173     1.12924817    -0.06703573
H      1.22201900     2.54152100     0.14498900   1    0.00000000        0    -0.28176207     0.56554907    -0.12120160
H      3.24169600     1.35937600    -0.29649600   1    0.00000000        0     1.10673882     0.24977594     0.00583006
H      3.35117400    -1.13490000    -0.25237400   1    0.00000000        0     1.04105065    -0.57214787    -0.26264559
H      1.32387600    -2.46638400     0.19449400   1    0.00000000        0    -0.08423863     1.32174273    -0.19819240
18
Lattice="20.0 0.0 0.0 0.0 20.0 0.0 0.0 0.0 20.0" Properties=species:S:1:pos:R:3:Z:I:1:magmoms:R:1:tags:I:1:forces:R:3 energy=-10489.436711330818 pbc="F F F"
C     -1.16153800    -1.48213600     0.18841500   6    0.00000000        0    -2.25395646    -1.42947973    -1.87321721
C     -2.41101500    -0.86582100    -0.09713800   6    0.00000000        0     1.49662781     3.12596188     0.24930298
C     -2.40983800     0.68066000    -0.15057800   6    0.00000000        0    -3.32431629    -1.51269737    -0.72470955
C     -1.27924000     1.40349500     0.02660700   6    0.00000000        0     0.22914652    -0.94600833    -0.32140493
C     -0.06182100     0.70285200     0.06816900   6    0.00000000        0     2.37642301     1.84493799     1.09935900
C      1.17636900     1.46755800     0.05599200   6    0.00000000        0     0.58057864    -2.86555921    -0.45340922
C      2.39640900     0.74169700    -0.12301700   6    0.00000000        0    -2.07281159     2.90368817     0.11609072
C      2.43140100    -0.62004300    -0.15933600   6    0.00000000        0    -0.60187004    -1.25617458     0.58648445
C      1.27771600    -1.33575000     0.09012100   6    0.00000000        0     0.49557404    -1.42895972     0.10089315
C      0.03772200    -0.69809500     0.19106600   6    0.00000000        0    -0.98097433    -0.99242201    -0.33862244
H     -1.10314300    -2.64787200    -0.01081400   1    0.00000000        0     0.04366857     2.21144768     0.86150670
H     -3.38401100    -1.30772900    -0.36849400   1    0.00000000        0     0.64461181    -0.36114184     0.35016612
H     -3.41899000     1.26695300    -0.46227900   1    0.00000000        0     2.11517037    -1.55142626     0.93312471
H     -1.18473900     2.46787100    -0.02351900   1    0.00000000        0    -0.43398278     0.78991275    -0.06536195
H      1.20491400     2.53646100     0.13965400   1    0.00000000        0    -0.19429652     0.62183648    -0.12132158
H      3.25505500     1.34808500    -0.28888900   1    0.00000000        0     1.05217033     0.32711877     0.01177226
H      3.35280400    -1.14168100    -0.24734500   1    0.00000000        0     0.93493166    -0.46349295    -0.24761801
H      1.32390000    -2.45555900     0.18624900   1    0.00000000        0    -0.10129014     0.98080135    -0.16079147
18
Lattice="20.0 0.0 0.0 0.0 20.0 0.0 0.0 0.0 20.0" Properties=species:S:1:pos:R:3:Z:I:1:magmoms:R:1:tags:I:1:forces:R:3 energy=-10489.480074584797 pbc="F F F"
C     -1.16279200    -1.48343500     0.18840600   6    0.00000000        0    -2.20263792    -1.42727978    -1.90967616
C     -2.41551300    -0.86781200    -0.09397100   6    0.00000000        0     1.38013109     2.97172625     0.11694471
C     -2.40871400     0.67999200    -0.14775100   6    0.00000000        0    -3.29412714    -1.51628728    -0.67477499
C     -1.28160100     1.40671900     0.02182900   6    0.00000000        0     0.41746624    -0.70353619    -0.22444968
C     -0.06569300     0.70166200     0.07100100   6    0.00000000        0     2.66671484     1.98730398     0.97613148
C      1.18206000     1.46227600     0.05202800   6    0.00000000        0     0.11478375    -2.54785820    -0.36565570
C      2.39698800     0.74715200    -0.12071200   6    0.00000000        0    -1.68818243     2.53438858     0.05644829
C      2.43378200    -0.61789100    -0.15607800   6    0.00000000        0    -0.65962339    -1.44163935     0.58929938
C      1.27451800    -1.33857400     0.08684300   6    0.00000000        0     0.91805312    -0.81911691     0.01585577
C      0.04318800    -0.69526700     0.18954400   6    0.00000000        0    -1.50779749    -1.19876623    -0.28292203
H     -1.10909500    -2.65525700    -0.01549300   1    0.00000000        0     0.07198278     2.33224427     0.88155713
H     -3.39136900    -1.31826300    -0.38734400   1    0.00000000        0     0.92789883    -0.18231287     0.48562231
H     -3.40082100     1.27455300    -0.44672400   1    0.00000000        0     1.85943758    -1.53466675     0.83506448
H     -1.19224800     2.48240400    -0.02332400   1    0.00000000        0    -0.43076688     0.38683309    -0.06300841
H      1.18700100     2.53280500     0.13392000   1    0.00000000        0    -0.10445505     0.58985738    -0.12760739
H      3.27122200     1.33736100    -0.28110400   1    0.00000000        0     0.90086059     0.35041811     0.03257838
H      3.35672500    -1.14971700    -0.24281600   1    0.00000000        0     0.74378605    -0.30374845    -0.22299970
H      1.32368000    -2.44214900     0.17745200   1    0.00000000        0    -0.11071489     0.52158328    -0.11556173
18
Lattice="20.0 0.0 0.0 0.0 20.0 0.0 0.0 0.0 20.0" Properties=species:S:1:pos:R:3:Z:I:1:magmoms:R:1:tags:I:1:forces:R:3 energy=-10489.527774164175 pbc="F F F"
C     -1.16451200    -1.48504400     0.18801100   6    0.00000000        0    -2.13022996    -1.31546290    -1.91910589
C     -2.41980400    -0.86923300    -0.09072900   6    0.00000000        0     1.29192359     2.81629062    -0.01487039
C     -2.40823900     0.67900500    -0.14501600   6    0.00000000        0    -3.11097229    -1.56646585    -0.58646546
C     -1.28391500     1.40985200     0.01692800   6    0.00000000        0     0.58866940    -0.46145701    -0.12670543
C     -0.06908600     0.70085400     0.07407700   6    0.00000000        0     2.91792776     2.09113104     0.84657513
C      1.18786500     1.45639400     0.04792600   6    0.00000000        0    -0.37672538    -2.09019110    -0.26562851
C      2.39723400     0.75320700    -0.11835800   6    0.00000000        0    -1.17058701     2.14579953    -0.01823728
C      2.43606800    -0.61599800    -0.15264800   6    0.00000000        0    -0.65293959    -1.62346425     0.58017467
C      1.27145500    -1.34161000     0.08351700   6    0.00000000        0     1.31353298    -0.11508274    -0.06894744
C      0.04843700    -0.69263700     0.18794000   6    0.00000000        0    -2.02105303    -1.38097108    -0.22693261
H     -1.11496800    -2.65713200    -0.01812100   1    0.00000000        0     0.09969568     2.34197398     0.88028620
H     -3.39660700    -1.32940400    -0.40532500   1    0.00000000        0     1.15673739    -0.01694623     0.61482967
H     -3.37787700     1.27857200    -0.42890600   1    0.00000000        0     1.47816834    -1.44444929     0.70202519
H     -1.20091500     2.49810200    -0.02327900   1    0.00000000        0    -0.42108313    -0.03356346    -0.06215945
H      1.16854900     2.53051300     0.12778600   1    0.00000000        0    -0.00880023     0.47395464    -0.13921408
H      3.28982000     1.32731200    -0.27311500   1    0.00000000        0     0.66072937     0.32882074     0.06429040
H      3.36250300    -1.15861400    -0.23875300   1    0.00000000        0     0.49532904    -0.10910494    -0.19182859
H      1.32318700    -2.42726700     0.16823600   1    0.00000000        0    -0.11114787    -0.04338268    -0.06521148
18
Lattice="20.0 0.0 0.0 0.0 20.0 0.0 0.0 0.0 20.0" Properties=species:S:1:pos:R:3:Z:I:1:magmoms:R:1:tags:I:1:forces:R:3 energy=-10489.562464767356 pbc="F F F"
C     -1.16668000    -1.48693400     0.18722400   6    0.00000000        0    -2.03914254    -1.09506912    -1.90086644
C     -2.42387700    -0.87010100    -0.08745800   6    0.00000000        0     1.24383496     2.66805481    -0.13807112
C     -2.40838700     0.67769300    -0.14237200   6    0.00000000        0    -2.75025246    -1.68339257    -0.45693513
C     -1.28613400     1.41292400     0.01195200   6    0.00000000        0     0.73571927    -0.25838372    -0.02847882
C     -0.07192500     0.70046100     0.07735500   6    0.00000000        0     3.12584190     2.15431928     0.71247890
C      1.19365300     1.45003000     0.04372900   6    0.00000000        0    -0.89297381    -1.51722722    -0.15684658
C      2.39724600     0.75975700    -0.11598400   6    0.00000000        0    -0.54532063     1.73028121    -0.10094415
C      2.43824500    -0.61441200    -0.14906700   6    0.00000000        0    -0.60600794    -1.78400971     0.56144916
C      1.26862500    -1.34469900     0.08014200   6    0.00000000        0     1.67066289     0.64520281    -0.14777083
C      0.05333100    -0.69025900     0.18627400   6    0.00000000        0    -2.50860930    -1.53571671    -0.17192615
H     -1.12066200    -2.65339300    -0.01865900   1    0.00000000        0     0.12626343     2.23991687     0.85700785
H     -3.39911600    -1.34069800    -0.42201000   1    0.00000000        0     1.31863284     0.12757743     0.73022640
H     -3.35114300     1.27915900    -0.40921800   1    0.00000000        0     0.95165019    -1.26116443     0.53179502
H     -1.21068300     2.51388000    -0.02338300   1    0.00000000        0    -0.40233064    -0.43080686    -0.06388079
H      1.14988900     2.52933700     0.12125400   1    0.00000000        0     0.09498664     0.29237475    -0.15419865
H      3.31019600     1.31795000    -0.26489100   1    0.00000000        0     0.35377304     0.27882715     0.10096817