27
Lattice="3.93588 0.0 0.0 9.64012568766e-16 15.74352 0.0 1.31360732349e-15 1.31360732349e-15 21.452835616" Properties=species:S:1:pos:R:3:Z:I:1:magmoms:R:1:tags:I:1:forces:R:3 energy=-1914.89803151 pbc="T T F"
Ti      0.00000000       1.96794000       8.35973568       22       0.00000000        0       0.00000000       0.00000000       0.00000000 
O      0.00000000       0.00000000       8.00000000        8       0.00000000        0       0.00000000       0.00000000       0.00000000 
O      1.96794000       1.96794000       8.71947137        8       0.00000000        0       0.00000000       0.00000000       0.00000000 
Ti      0.00000000       5.90382000       8.35973568       22       0.00000000        0       0.00000000       0.00000000       0.00000000 
O      0.00000000       3.93588000       8.00000000        8       0.00000000        0       0.00000000       0.00000000       0.00000000 
O      1.96794000       5.90382000       8.71947137        8       0.00000000        0       0.00000000       0.00000000       0.00000000 
Ti      0.00000000       9.83970000       8.35973568       22       0.00000000        0       0.00000000       0.00000000       0.00000000 
O      0.00000000       7.87176000       8.00000000        8       0.00000000        0       0.00000000       0.00000000       0.00000000 
O      1.96794000       9.83970000       8.71947137        8       0.00000000        0       0.00000000       0.00000000       0.00000000 
Ti      0.00000000      13.77558000       8.35973568       22       0.00000000        0       0.00000000       0.00000000       0.00000000 
O      0.00000000      11.80764000       8.00000000        8       0.00000000        0       0.00000000       0.00000000       0.00000000 
O      1.96794000      13.77558000       8.71947137        8       0.00000000        0       0.00000000       0.00000000       0.00000000 
Ti      1.96792510       5.71013074      10.61722561       22       0.00000000        0       0.00184008      -0.00181860      -0.00129006 
Ti      1.96792727       2.15533838      10.61785145       22       0.00000000        0       0.00206789       0.00254584      -0.01506998 
Ti      1.96818031       9.27541691      10.63667027       22       0.00000000        0       0.00049287       0.00717147       0.00148588 
Ti      1.96781046      14.33044524      10.63725387       22       0.00000000        0       0.00207989       0.01426114       0.03067880 
Ti      1.96883312      11.80288436      13.27935070       22       0.00000000        0      -0.00084057       0.00404559       0.00522883 
O      0.00000419       5.73365428      10.34118202        8       0.00000000        0      -0.00087271       0.00044851       0.00402709 
O      1.96780011       7.49450319      11.28189050        8       0.00000000        0       0.00078896       0.00889351      -0.02271558 
O      1.96791398       3.93294950      11.31282054        8       0.00000000        0       0.00012646      -0.00324285      -0.01210564 
O      1.96809271       0.36901116      11.27786254        8       0.00000000        0      -0.00066861       0.01007135      -0.01864554 
O      0.00001916       2.13400170      10.34187893        8       0.00000000        0      -0.00087961      -0.00522219      -0.00241821 
O      3.93613592       9.48206169      10.31922110        8       0.00000000        0      -0.00214491      -0.00580367       0.03279161 
O     -0.00009760      14.11896164      10.32240679        8       0.00000000        0       0.00013610       0.02257100      -0.00131580 
O      1.96869754      13.24501931      12.18885572        8       0.00000000        0      -0.00109761      -0.01420304       0.00134640 
O      1.96848056      10.36094358      12.18885304        8       0.00000000        0       0.00008989      -0.01369560      -0.03789761 
O      0.00085954      11.80107402      13.74698919        8       0.00000000        0       0.00019741       0.00601894      -0.00064440 

