18
energy=-10489.5581284419
C     -1.17013400    -1.47577800     0.17499400
C     -2.36115200    -0.82167100    -0.11882700
C     -2.44013100     0.67150000    -0.17860000
C     -1.26232400     1.36909200     0.06036600
C     -0.01854000     0.72312800     0.05670200
C      1.14443200     1.48662600     0.08318700
C      2.37277300     0.72866500    -0.14058400
C      2.41308900    -0.64482500    -0.18170100
C      1.29853900    -1.33188900     0.11907300
C     -0.00372600    -0.72396500     0.19946100
H     -1.05564800    -2.48924200     0.09474900
H     -3.32851200    -1.29527400    -0.20771000
H     -3.36504000     1.08420200    -0.49368200
H     -1.16999300     2.46280100    -0.02921400
H      1.30703300     2.58903200     0.17226800
H      3.21337900     1.42991800    -0.34670400
H      3.40092000    -1.12765600    -0.30782800
H      1.32176500    -2.42597400     0.23607700
5
energy=-0.66606164
C      0.99825996    -0.00246000    -0.00436000
H      2.09020996    -0.00243000     0.00414000
H      0.63378996     1.02686000     0.00414000
H      0.62703997    -0.52772999     0.87810999
H      0.64135998    -0.50746995    -0.90539992
8
energy=-1.13531351
C      1.00404000    -0.00295000    -0.00640000
C      2.51595998    -0.00702000     0.00059000
H      0.62234998     1.02239990    -0.00164000
H      0.61410999    -0.51973999     0.87560993
H      0.62236995    -0.50841999    -0.89856994
H      2.89764977     0.50209999     0.89061993
H      2.90588999     0.50608999    -0.88356996
H      2.89762998    -1.03242993     0.00006000
10
energy=-1.89252913
C      1.00000000     0.00000000     0.00000000
C      2.19015980     0.00000000     0.00000000
C      3.63415980     0.00000000     0.00000000
C      4.11617994     1.36116993     0.00000000
C      4.51345968     2.48306990     0.00000000
C      5.04118967     3.92468977     0.00000000
N      5.44846964     5.01174974     0.00000000
H     -0.06559999     0.00303000     0.00000000
H      4.01199007    -0.53451997    -0.87853998
H      4.01199007    -0.53451997     0.87853998
9
energy=-4214.8193920471795
C     -0.29123100    -0.46010800    -0.05812200
C     -0.90662300     0.76826800     0.43630500
O      1.11764200    -0.31384200    -0.32022700
H     -0.43034200    -1.36632800     0.58569600
H     -0.90759600    -0.96809700    -0.92175300
H     -1.72145000     0.45210900     1.13255700
H     -0.29537100     1.36541300     1.10303700
H     -1.38698300     1.35477800    -0.38580500
H      1.27375300     0.47029300    -0.93710600
